                         Program Version 3.0.3 - RELEASE   -
|  1> ! LDA def2-TZVP TIGHTSCF
|  2> #
|  3> %maxcore 1024
|  4> #
|  5> *xyz 0 1
|  6> C      0.000000    0.000000    0.000000
|  7> O      1.250000    0.000000    0.000000
|  8> *
|  9>
| 10>                          ****END OF INPUT****

CARTESIAN COORDINATES (ANGSTROEM)
---------------------------------
  C      0.000000    0.000000    0.000000
  O      1.250000    0.000000    0.000000

 Total Charge           Charge          ....    0
 Multiplicity           Mult            ....    1
 Number of Electrons    NEL             ....   14
 Basis Dimension        Dim             ....   62

ORBITAL ENERGIES
----------------

  NO   OCC          E(Eh)            E(eV)
   0   2.0000     -18.722222      -509.4576
   1   2.0000      -9.941688      -270.5271
   2   2.0000      -1.014018       -27.5928
   3   2.0000      -0.522295       -14.2124
   4   2.0000      -0.408845       -11.1252
   5   2.0000      -0.408845       -11.1252
   6   2.0000      -0.343409        -9.3446
   7   0.0000      -0.120916        -3.2903
   8   0.0000      -0.120916        -3.2903
   9   0.0000       0.090761         2.4697
  10   0.0000       0.150936         4.1072
  11   0.0000       0.188795         5.1374

MULLIKEN ATOMIC CHARGES
-----------------------
   0 C :    0.063038
   1 O :   -0.063038
Sum of atomic charges:   -0.0000000

LOEWDIN ATOMIC CHARGES
----------------------
   0 C :   -0.158315
   1 O :    0.158315

  Mayer bond orders larger than 0.1
B(  0-C ,  1-O ) :   2.3873

FINAL SINGLE POINT ENERGY      -112.444276772258

DIPOLE MOMENT
-------------
                                X             Y             Z
Electronic contribution:     -0.07282      -0.00000      -0.00000
Nuclear contribution   :      0.00793       0.00000       0.00000
                        -----------------------------------------
Total Dipole Moment    :     -0.06489      -0.00000      -0.00000
                        -----------------------------------------
Magnitude (a.u.)       :      0.06489
Magnitude (Debye)      :      0.16494

                             ****ORCA TERMINATED NORMALLY****
TOTAL RUN TIME: 0 days 0 hours 0 minutes 3 seconds 56 msec
