                         Program Version 3.0.3 - RELEASE   -
|  1> ! BP86 def2-TZVP TIGHTSCF
|  2> #
|  3> %maxcore 1024
|  4> #
|  5> *xyz 0 1
|  6> C      0.000000    0.000000    0.000000
|  7> O      1.250000    0.000000    0.000000
|  8> *
|  9>
| 10>                          ****END OF INPUT****

CARTESIAN COORDINATES (ANGSTROEM)
---------------------------------
  C      0.000000    0.000000    0.000000
  O      1.250000    0.000000    0.000000

 Total Charge           Charge          ....    0
 Multiplicity           Mult            ....    1
 Number of Electrons    NEL             ....   14
 Basis Dimension        Dim             ....   62

ORBITAL ENERGIES
----------------

  NO   OCC          E(Eh)            E(eV)
   0   2.0000     -18.878836      -513.7193
   1   2.0000     -10.049643      -273.4647
   2   2.0000      -1.018743       -27.7214
   3   2.0000      -0.524155       -14.2630
   4   2.0000      -0.402470       -10.9518
   5   2.0000      -0.402470       -10.9518
   6   2.0000      -0.344380        -9.3710
   7   0.0000      -0.114698        -3.1211
   8   0.0000      -0.114698        -3.1211
   9   0.0000       0.099013         2.6943
  10   0.0000       0.155945         4.2435
  11   0.0000       0.198660         5.4058

MULLIKEN ATOMIC CHARGES
-----------------------
   0 C :    0.091055
   1 O :   -0.091055
Sum of atomic charges:   -0.0000000

LOEWDIN ATOMIC CHARGES
----------------------
   0 C :   -0.148897
   1 O :    0.148897

  Mayer bond orders larger than 0.1
B(  0-C ,  1-O ) :   2.3792

FINAL SINGLE POINT ENERGY      -113.340499268815

DIPOLE MOMENT
-------------
                                X             Y             Z
Electronic contribution:     -0.07772       0.00000       0.00000
Nuclear contribution   :      0.00793       0.00000       0.00000
                        -----------------------------------------
Total Dipole Moment    :     -0.06979       0.00000       0.00000
                        -----------------------------------------
Magnitude (a.u.)       :      0.06979
Magnitude (Debye)      :      0.17740

                             ****ORCA TERMINATED NORMALLY****
TOTAL RUN TIME: 0 days 0 hours 0 minutes 2 seconds 791 msec
