                         Program Version 3.0.3 - RELEASE   -
|  1> ! B3LYP def2-TZVP(-f) def2-TZVP/J ZORA TightSCF
|  2> #
|  3> %maxcore 1024
|  4> #
|  5> #%tddft	OrbWin[0] = 0,0,-1,-1
|  6> #	NRoots 25
|  7> #	MaxDim 150
|  8> #	DoQuad true
|  9> #	end
| 10> #
| 11> * int 0 1
| 12> Zr 0 0 0 0 0 0
| 13> O 1 2 3 2.15 0 0
| 14> O 1 2 3 2.15 109.4712 0
| 15> O 1 2 3 2.15 109.4712 120
| 16> O 1 2 3 2.15 109.4712 240
| 17> *
| 18>
| 19>                          ****END OF INPUT****

CARTESIAN COORDINATES (ANGSTROEM)
---------------------------------
  Zr     0.000000    0.000000    0.000000
  O      2.150000    0.000000    0.000000
  O     -0.716666    2.027040    0.000000
  O     -0.716666   -1.013520   -1.755468
  O     -0.716666   -1.013520    1.755468

 Total Charge           Charge          ....    0
 Multiplicity           Mult            ....    1
 Number of Electrons    NEL             ....   72
 Basis Dimension        Dim             ....  171
FINAL SINGLE POINT ENERGY     -3931.243650399445

DIPOLE MOMENT
-------------
                                X             Y             Z
Electronic contribution:      0.08215       0.07997       0.03864
Nuclear contribution   :      0.00000      -0.00000      -0.00000
                        -----------------------------------------
Total Dipole Moment    :      0.08215       0.07997       0.03864
                        -----------------------------------------
Magnitude (a.u.)       :      0.12098
Magnitude (Debye)      :      0.30751

                             ****ORCA TERMINATED NORMALLY****
TOTAL RUN TIME: 0 days 0 hours 8 minutes 6 seconds 721 msec
