                         Program Version 3.0.3 - RELEASE   -
|  1> ! B3LYP def2-TZVP TIGHTSCF Opt D3BJ
|  2> #
|  3> %maxcore 1024
|  4> #
|  5> *xyz 0 1
|  6> C      0.000000    0.000000    0.000000
|  7> O      1.250000    0.000000    0.000000
|  8> H     -0.587148    0.939049    0.000000
|  9> H     -0.587148   -0.939049   -0.000000
| 10> *
| 11>
| 12>                          ****END OF INPUT****
 Total Charge           Charge          ....    0
 Multiplicity           Mult            ....    1
 Number of Electrons    NEL             ....   16
Dispersion correction           -0.001831613
FINAL SINGLE POINT ENERGY      -114.493204919618
Dispersion correction            ...
Dispersion correction           -0.001834676
FINAL SINGLE POINT ENERGY      -114.496662920110
Dispersion correction            ...
Dispersion correction           -0.001835136
FINAL SINGLE POINT ENERGY      -114.496829584909
Dispersion correction            ...
FINAL SINGLE POINT ENERGY      -114.496839173289
Dispersion correction            ...
Dispersion correction           -0.001834921
FINAL SINGLE POINT ENERGY      -114.496841567151
Dispersion correction            ...
Dispersion correction           -0.001834920
FINAL SINGLE POINT ENERGY      -114.496841705833
Dispersion correction            ...
                    ***********************HURRAY********************

CARTESIAN COORDINATES (ANGSTROEM)
---------------------------------
  C      0.013359    0.000000   -0.000000
  O      1.212275   -0.000000    0.000000
  H     -0.574965    0.939073    0.000000
  H     -0.574965   -0.939073    0.000000

 Multiplicity           Mult            ....    1
 Number of Electrons    NEL             ....   16
 Basis Dimension        Dim             ....   74

ORBITAL ENERGIES
----------------

  NO   OCC          E(Eh)            E(eV)
   0   2.0000     -19.146335      -520.9983
   1   2.0000     -10.272554      -279.5304
   2   2.0000      -1.069035       -29.0899
   3   2.0000      -0.639084       -17.3904
   4   2.0000      -0.501804       -13.6548
   5   2.0000      -0.458813       -12.4849
   6   2.0000      -0.409054       -11.1309
   7   2.0000      -0.276114        -7.5134
   8   0.0000      -0.055077        -1.4987
   9   0.0000       0.054156         1.4737
  10   0.0000       0.109442         2.9781
  11   0.0000       0.111934         3.0459
  12   0.0000       0.206610         5.6222

MULLIKEN ATOMIC CHARGES
-----------------------
   0 C :    0.061930
   1 O :   -0.229823
   2 H :    0.083946
   3 H :    0.083946
Sum of atomic charges:   -0.0000000

LOEWDIN ATOMIC CHARGES
----------------------
   0 C :   -0.278189
   1 O :    0.105350
   2 H :    0.086420
   3 H :    0.086420

  Mayer bond orders larger than 0.1
B(  0-C ,  1-O ) :   2.0951 B(  0-C ,  2-H ) :   0.9196 B(  0-C ,  3-H ) :   0.9196

Dispersion correction           -0.001834925
FINAL SINGLE POINT ENERGY      -114.496841688901

DIPOLE MOMENT
-------------
                                X             Y             Z
Electronic contribution:      1.30546      -0.00000      -0.00000
Nuclear contribution   :     -2.21958       0.00000       0.00000
                        -----------------------------------------
Total Dipole Moment    :     -0.91412       0.00000      -0.00000
                        -----------------------------------------
Magnitude (a.u.)       :      0.91412
Magnitude (Debye)      :      2.32351

                             ****ORCA TERMINATED NORMALLY****
TOTAL RUN TIME: 0 days 0 hours 0 minutes 47 seconds 191 msec
