                         Program Version 3.0.3 - RELEASE   -
|  1> # -----------------------------------------------------
|  2> #! UKS LSD SVP grid5 NoFinalGrid TightSCF KeepInts
|  3> # -----------------------------------------------------
|  4> #%eprnmr gtensor 1 end
|  5> #* int 0 2
|  6> #B 0 0 0 0 0 0
|  7> #O 1 0 0 1.2049 0 0
|  8> #*
|  9> # *************************************************
| 10> # ****** This starts the input for the next job *
| 11> # *************************************************
| 12> #$new_job
| 13> # --------------------------------------------------
| 14> ! B3LYP SVP SmallPrint ReadInts NoKeepInts
| 15> # --------------------------------------------------
| 16> %eprnmr gtensor 1 end
| 17> * int 0 2
| 18> B 0 0 0 0 0 0
| 19> O 1 0 0 1.2049 0 0
| 20> *
| 21>
| 22>                          ****END OF INPUT****

CARTESIAN COORDINATES (ANGSTROEM)
---------------------------------
  B      0.000000    0.000000    0.000000
  O      1.204900    0.000000    0.000000

 Total Charge           Charge          ....    0
 Multiplicity           Mult            ....    2
 Number of Electrons    NEL             ....   13
 Basis Dimension        Dim             ....   28

ORBITAL ENERGIES
----------------
                 SPIN UP ORBITALS
  NO   OCC          E(Eh)            E(eV)
   0   1.0000     -19.150971      -521.1244
   1   1.0000      -6.839685      -186.1173
   2   1.0000      -0.985960       -26.8293
   3   1.0000      -0.441442       -12.0122
   4   1.0000      -0.372993       -10.1497
   5   1.0000      -0.372993       -10.1497
   6   1.0000      -0.342653        -9.3241
   7   0.0000      -0.008909        -0.2424
   8   0.0000      -0.008909        -0.2424
   9   0.0000       0.133123         3.6225
  10   0.0000       0.202038         5.4977
  11   0.0000       0.284966         7.7543

                 SPIN DOWN ORBITALS
  NO   OCC          E(Eh)            E(eV)
   0   1.0000     -19.151627      -521.1423
   1   1.0000      -6.822373      -185.6462
   2   1.0000      -0.984342       -26.7853
   3   1.0000      -0.430170       -11.7055
   4   1.0000      -0.373014       -10.1502
   5   1.0000      -0.373014       -10.1502
   6   0.0000      -0.172211        -4.6861
   7   0.0000       0.021871         0.5951
   8   0.0000       0.021871         0.5951
   9   0.0000       0.147238         4.0065
  10   0.0000       0.251374         6.8402

MULLIKEN ATOMIC CHARGES AND SPIN POPULATIONS
--------------------------------------------
   0 B :    0.038791    1.061957
   1 O :   -0.038791   -0.061957
Sum of atomic charges         :    0.0000000

LOEWDIN ATOMIC CHARGES AND SPIN POPULATIONS
-------------------------------------------
   0 B :   -0.006104    1.036073
   1 O :    0.006104   -0.036073

  Mayer bond orders larger than 0.1
B(  0-B ,  1-O ) :   2.6175

FINAL SINGLE POINT ENERGY       -99.903446723904

DIPOLE MOMENT
-------------
                                X             Y             Z
Electronic contribution:     -1.36939       0.00000       0.00000
Nuclear contribution   :      0.55078       0.00000       0.00000
                        -----------------------------------------
Total Dipole Moment    :     -0.81861       0.00000       0.00000
                        -----------------------------------------
Magnitude (a.u.)       :      0.81861
Magnitude (Debye)      :      2.08074

                             ****ORCA TERMINATED NORMALLY****
TOTAL RUN TIME: 0 days 0 hours 0 minutes 6 seconds 22 msec
